6    
Iteration 0 Energy  0.00477798
C        1.0000000000    1.0000000000    0.0000000000
S       -0.8040000000    1.0000000000    0.0000000000
H        1.3710000000    1.0000000000   -1.0280000000
H        1.3710000000    0.1090000000    0.5130000000
H        1.3710000000    1.8910000000    0.5130000000
H       -0.9560000000   -0.1540000000   -0.6670000000
6    
Iteration 1 Energy  0.00470430
C        0.9993582752    0.9993373453   -0.0006329136
S       -0.8107707227    0.9969425539   -0.0018502371
H        1.3781331470    1.0013778264   -1.0233097300
H        1.3783341136    0.1144780801    0.5119814749
H        1.3726786335    1.8870664179    0.5113201279
H       -0.9647334465   -0.1532022236   -0.6665087220
6    
Iteration 2 Energy  0.00469917
C        0.9986193019    0.9990817428   -0.0009297496
S       -0.8134351716    0.9963536499   -0.0022463269
H        1.3807772431    1.0019665714   -1.0219201181
H        1.3810376987    0.1163088092    0.5118415086
H        1.3736650111    1.8856961036    0.5108312781
H       -0.9676640831   -0.1534068768   -0.6665765920
6    
Iteration 3 Energy  0.00469910
C        0.9984448260    0.9990451117   -0.0009839077
S       -0.8135782659    0.9964090578   -0.0022387622
H        1.3809420263    1.0020412425   -1.0219142099
H        1.3811840789    0.1163895066    0.5118902116
H        1.3737614924    1.8855934702    0.5108282586
H       -0.9677541578   -0.1534783887   -0.6665815903
