UNK_CS                                                                  
FOpt      RB3LYP                                                      6-31G(d)            
Number of atoms                            I                6
Info1-9                                    I   N=           9
          16          15           0           0           0         110
           2          18        -502
Charge                                     I                0
Multiplicity                               I                1
Number of electrons                        I               26
Number of alpha electrons                  I               13
Number of beta electrons                   I               13
Number of basis functions                  I               42
Number of independent functions            I               42
Number of point charges in /Mol/           I                0
Number of translation vectors              I                0
Atomic numbers                             I   N=           6
           6          16           1           1           1           1
Nuclear charges                            R   N=           6
  6.00000000E+00  1.60000000E+01  1.00000000E+00  1.00000000E+00  1.00000000E+00
  1.00000000E+00
Current cartesian coordinates              R   N=          18
 -2.20159970E+00  3.68951528E-02  3.12250226E-17  1.26194123E+00 -1.64734564E-01
  2.77555756E-17 -2.90250381E+00  9.88011675E-01 -1.69273846E+00 -2.90250397E+00
  9.88004979E-01  1.69274214E+00 -2.89276578E+00 -1.90852919E+00 -3.72953727E-06
  1.71631209E+00  2.34689464E+00  2.33144867E-07
Force Field                                I                0
Int Atom Types                             I   N=           6
           0           0           0           0           0           0
MM charges                                 R   N=           6
  0.00000000E+00  0.00000000E+00  0.00000000E+00  0.00000000E+00  0.00000000E+00
  0.00000000E+00
Integer atomic weights                     I   N=           6
          12          32           1           1           1           1
Real atomic weights                        R   N=           6
  1.20000000E+01  3.19720718E+01  1.00782504E+00  1.00782504E+00  1.00782504E+00
  1.00782504E+00
Atom fragment info                         I   N=           6
           0           0           0           0           0           0
Atom residue num                           I   N=           6
           0           0           0           0           0           0
Nuclear spins                              I   N=           6
           0           0           1           1           1           1
Nuclear ZEff                               R   N=           6
 -3.60000000E+00 -1.36000000E+01 -1.00000000E+00 -1.00000000E+00 -1.00000000E+00
 -1.00000000E+00
Nuclear ZNuc                               R   N=           6
  6.00000000E+00  1.60000000E+01  1.00000000E+00  1.00000000E+00  1.00000000E+00
  1.00000000E+00
Nuclear QMom                               R   N=           6
  0.00000000E+00  0.00000000E+00  0.00000000E+00  0.00000000E+00  0.00000000E+00
  0.00000000E+00
Nuclear GFac                               R   N=           6
  0.00000000E+00  0.00000000E+00  2.79284600E+00  2.79284600E+00  2.79284600E+00
  2.79284600E+00
MicOpt                                     I   N=           6
          -1          -1          -1          -1          -1          -1
Number of contracted shells                I               17
Number of primitive shells                 I               44
Pure/Cartesian d shells                    I                1
Pure/Cartesian f shells                    I                0
Highest angular momentum                   I                2
Largest degree of contraction              I                6
Shell types                                I   N=          17
           0          -1          -1           2           0          -1
          -1          -1           2           0           0           0
           0           0           0           0           0
Number of primitives per shell             I   N=          17
           6           3           1           1           6           6
           3           1           1           3           1           3
           1           3           1           3           1
Shell to atom map                          I   N=          17
           1           1           1           1           2           2
           2           2           2           3           3           4
           4           5           5           6           6
Primitive exponents                        R   N=          44
  3.04752488E+03  4.57369518E+02  1.03948685E+02  2.92101553E+01  9.28666296E+00
  3.16392696E+00  7.86827235E+00  1.88128854E+00  5.44249258E-01  1.68714478E-01
  8.00000000E-01  2.19171000E+04  3.30149000E+03  7.54146000E+02  2.12711000E+02
  6.79896000E+01  2.30515000E+01  4.23735000E+02  1.00710000E+02  3.21599000E+01
  1.18079000E+01  4.63110000E+00  1.87025000E+00  2.61584000E+00  9.22167000E-01
  3.41287000E-01  1.17167000E-01  6.50000000E-01  1.87311370E+01  2.82539436E+00
  6.40121692E-01  1.61277759E-01  1.87311370E+01  2.82539436E+00  6.40121692E-01
  1.61277759E-01  1.87311370E+01  2.82539436E+00  6.40121692E-01  1.61277759E-01
  1.87311370E+01  2.82539436E+00  6.40121692E-01  1.61277759E-01
Contraction coefficients                   R   N=          44
  1.83473713E-03  1.40373228E-02  6.88426223E-02  2.32184443E-01  4.67941348E-01
  3.62311985E-01 -1.19332420E-01 -1.60854152E-01  1.14345644E+00  1.00000000E+00
  1.00000000E+00  1.86924085E-03  1.42303065E-02  6.96962317E-02  2.38487108E-01
  4.83307220E-01  3.38074154E-01 -2.37677050E-03 -3.16930067E-02 -1.13317024E-01
  5.60900118E-02  5.92255124E-01  4.55006095E-01 -2.50373114E-01  6.69567631E-02
  1.05450627E+00  1.00000000E+00  1.00000000E+00  3.34946043E-02  2.34726953E-01
  8.13757326E-01  1.00000000E+00  3.34946043E-02  2.34726953E-01  8.13757326E-01
  1.00000000E+00  3.34946043E-02  2.34726953E-01  8.13757326E-01  1.00000000E+00
  3.34946043E-02  2.34726953E-01  8.13757326E-01  1.00000000E+00
P(S=P) Contraction coefficients            R   N=          44
  0.00000000E+00  0.00000000E+00  0.00000000E+00  0.00000000E+00  0.00000000E+00
  0.00000000E+00  6.89990666E-02  3.16423961E-01  7.44308291E-01  1.00000000E+00
  0.00000000E+00  0.00000000E+00  0.00000000E+00  0.00000000E+00  0.00000000E+00
  0.00000000E+00  0.00000000E+00  4.06100998E-03  3.06812999E-02  1.30451999E-01
  3.27204999E-01  4.52850998E-01  2.56041999E-01 -1.45104895E-02  3.10262776E-01
  7.54482456E-01  1.00000000E+00  0.00000000E+00  0.00000000E+00  0.00000000E+00
  0.00000000E+00  0.00000000E+00  0.00000000E+00  0.00000000E+00  0.00000000E+00
  0.00000000E+00  0.00000000E+00  0.00000000E+00  0.00000000E+00  0.00000000E+00
  0.00000000E+00  0.00000000E+00  0.00000000E+00  0.00000000E+00
Coordinates of each shell                  R   N=          51
 -2.20159970E+00  3.68951528E-02 -5.20417043E-17 -2.20159970E+00  3.68951528E-02
 -5.20417043E-17 -2.20159970E+00  3.68951528E-02 -5.20417043E-17 -2.20159970E+00
  3.68951528E-02 -5.20417043E-17  1.26194123E+00 -1.64734564E-01  5.55111512E-17
  1.26194123E+00 -1.64734564E-01  5.55111512E-17  1.26194123E+00 -1.64734564E-01
  5.55111512E-17  1.26194123E+00 -1.64734564E-01  5.55111512E-17  1.26194123E+00
 -1.64734564E-01  5.55111512E-17 -2.90250381E+00  9.88011666E-01 -1.69273846E+00
 -2.90250381E+00  9.88011666E-01 -1.69273846E+00 -2.90250398E+00  9.88004988E-01
  1.69274213E+00 -2.90250398E+00  9.88004988E-01  1.69274213E+00 -2.89276578E+00
 -1.90852919E+00 -3.72131235E-06 -2.89276578E+00 -1.90852919E+00 -3.72131235E-06
  1.71631209E+00  2.34689464E+00  2.33166429E-07  1.71631209E+00  2.34689464E+00
  2.33166429E-07
Constraint Structure                       R   N=          18
 -2.16935627E+00  2.59383861E-02  9.09067293E-06  1.24945958E+00 -1.66576176E-01
  3.37839555E-06 -2.83565397E+00  1.02636362E+00 -1.67325312E+00 -2.83572293E+00
  1.02557165E+00  1.67371534E+00 -2.98927569E+00 -1.86428660E+00 -5.21739865E-04
  1.68543698E+00  2.32193984E+00 -4.90786668E-05
Num ILSW                                   I              100
ILSW                                       I   N=         100
           0           1           0           0           2           0
           0           0           0           0         402          -1
           0           0           0           0           2           0
           0           0           1           0           1           0
           1           0           0           0           0           0
           0           0      100000           0          -1           0
           0           0           0           0           0           0
           0           0           0           1           0           0
           0           0           1           0           0           0
           0           0           4          41           0           0
           0           0           5           0           0           0
           0           0           0           0           0           0
           0           0           0           0           0           0
           0           0           0           0           0           0
           0           0           0           0           0           0
           0           0           0           0           0           0
           0           0           0           0
Num RLSW                                   I               41
RLSW                                       R   N=          41
  8.00000000E-01  7.20000000E-01  1.00000000E+00  8.10000000E-01  2.00000000E-01
  0.00000000E+00  0.00000000E+00  1.00000000E+00  0.00000000E+00  0.00000000E+00
  0.00000000E+00  0.00000000E+00  1.00000000E+00  0.00000000E+00  0.00000000E+00
  0.00000000E+00  0.00000000E+00  1.00000000E+00  0.00000000E+00  0.00000000E+00
  0.00000000E+00  0.00000000E+00  1.00000000E+00  0.00000000E+00  0.00000000E+00
  0.00000000E+00  0.00000000E+00  1.00000000E+00  0.00000000E+00  0.00000000E+00
  0.00000000E+00  0.00000000E+00  1.00000000E+00  0.00000000E+00  0.00000000E+00
  0.00000000E+00  0.00000000E+00  0.00000000E+00  1.00000000E+00  1.00000000E+00
  0.00000000E+00
MxBond                                     I                4
NBond                                      I   N=           6
           4           2           1           1           1           1
IBond                                      I   N=          24
           2           3           4           5           1           6
           0           0           1           0           0           0
           1           0           0           0           1           0
           0           0           2           0           0           0
RBond                                      R   N=          24
  1.00000000E+00  1.00000000E+00  1.00000000E+00  1.00000000E+00  1.00000000E+00
  1.00000000E+00  0.00000000E+00  0.00000000E+00  1.00000000E+00  0.00000000E+00
  0.00000000E+00  0.00000000E+00  1.00000000E+00  0.00000000E+00  0.00000000E+00
  0.00000000E+00  1.00000000E+00  0.00000000E+00  0.00000000E+00  0.00000000E+00
  1.00000000E+00  0.00000000E+00  0.00000000E+00  0.00000000E+00
Virial Ratio                               R      2.003931076701804E+00
SCF Energy                                 R     -4.386983484443433E+02
Total Energy                               R     -4.386983484443433E+02
RMS Force                                  R      3.192576278095113E-06
RMS Density                                R      5.468702020255162E-09
External E-field                           R   N=          35
  0.00000000E+00  0.00000000E+00  0.00000000E+00  0.00000000E+00  0.00000000E+00
  0.00000000E+00  0.00000000E+00  0.00000000E+00  0.00000000E+00  0.00000000E+00
  0.00000000E+00  0.00000000E+00  0.00000000E+00  0.00000000E+00  0.00000000E+00
  0.00000000E+00  0.00000000E+00  0.00000000E+00  0.00000000E+00  0.00000000E+00
  0.00000000E+00  0.00000000E+00  0.00000000E+00  0.00000000E+00  0.00000000E+00
  0.00000000E+00  0.00000000E+00  0.00000000E+00  0.00000000E+00  0.00000000E+00
  0.00000000E+00  0.00000000E+00  0.00000000E+00  0.00000000E+00  0.00000000E+00
IOpCl                                      I                0
IROHF                                      I                0
Alpha Orbital Energies                     R   N=          42
 -8.88741951E+01 -1.02171972E+01 -7.93741466E+00 -5.90252815E+00 -5.89888772E+00
 -5.89152193E+00 -7.78041451E-01 -6.47725180E-01 -4.50021392E-01 -4.30520324E-01
 -3.93023470E-01 -3.32758816E-01 -2.36380366E-01  2.77389888E-02  7.06618119E-02
  1.24075623E-01  1.45106639E-01  1.50271367E-01  3.48876379E-01  3.62633001E-01
  3.80480285E-01  3.86191399E-01  5.06100903E-01  5.24639378E-01  5.83412777E-01
  7.24256381E-01  7.72331954E-01  8.32270363E-01  8.58330991E-01  8.76887856E-01
  8.81916968E-01  8.99944513E-01  9.90936977E-01  1.13790058E+00  1.22130039E+00
  1.68883095E+00  1.70288364E+00  2.12814250E+00  2.22104439E+00  2.22763130E+00
  3.89583508E+00  4.17103609E+00
Alpha MO coefficients                      R   N=        1764
 -1.18955974E-05  3.92800762E-05  1.37006653E-04 -9.08206274E-06 -3.46769489E-11
  3.50079923E-04 -1.82996154E-04 -1.49391527E-05  1.81546541E-10 -5.34209379E-05
 -1.89941387E-05 -2.89547858E-05 -2.43129470E-07 -8.72510921E-12  1.73486943E-11
  9.96111936E-01  1.48634671E-02 -5.78439131E-05  6.46887311E-05  1.15661167E-11
 -2.41205614E-02  9.44888530E-05 -6.68844394E-05 -1.43263413E-11  3.20384832E-03
 -1.56083467E-04  2.27177704E-04  2.20228815E-12  8.46675535E-03  8.47214765E-03
  8.47084830E-03 -1.83086925E-06  1.14399864E-11  1.93915152E-12 -2.56727382E-05
 -2.49283943E-04 -2.56727338E-05 -2.49284254E-04 -3.87772078E-05 -2.28826047E-04
  1.75548676E-04 -3.99399275E-04  9.92899888E-01  4.96136246E-02  3.90182954E-04
 -7.17439431E-05 -2.01948133E-10 -1.48705898E-02 -6.75902342E-04  1.84542811E-04
  3.11447195E-10 -9.35591862E-03 -9.12126421E-03 -9.12117045E-03 -4.69765459E-06
 -5.09378894E-13 -5.72718970E-11 -3.66866173E-07 -3.48683458E-05  1.81829682E-05
  1.94781597E-06  3.15593973E-12  1.23420226E-04 -3.48089621E-04 -1.21080793E-05
 -2.09516968E-11  2.85654220E-03 -1.61839919E-03  4.45693717E-04  4.62736689E-11
 -1.09767093E-04 -7.63383836E-05 -1.69400941E-04  7.13908396E-06  4.30032658E-12
 -1.81962895E-12 -1.08833167E-04  2.31917228E-03 -1.08833045E-04  2.31917210E-03
 -1.01411292E-04  2.46825593E-03 -1.07009357E-04 -3.82837229E-04  1.66596368E-05
  5.84559914E-04 -8.04374281E-04  5.43559652E-05  3.49200281E-10 -1.12723613E-03
  1.43856479E-03  1.55679861E-04 -1.90389646E-09 -8.14678601E-04  8.44002699E-05
  1.82406470E-04  8.46209560E-05  5.88673185E-11 -1.74839446E-10 -2.79741653E-01
  1.02199319E+00 -5.19483433E-03  6.71688228E-03  1.34000944E-09  7.87783857E-02
 -1.17870096E-03  1.04044835E-03  2.43635029E-10 -1.90334650E-02  1.75001935E-03
 -2.54890476E-03 -8.33637694E-11 -1.73175673E-02 -1.74493125E-02 -1.80535564E-02
  1.48693287E-04 -8.98505345E-11  8.51953475E-11 -5.91586445E-05  1.72767422E-03
 -5.91587126E-05  1.72767741E-03  8.22549266E-05  1.45103161E-03 -1.37477664E-03
  4.01654603E-03 -1.26412344E-04 -1.65896453E-03  8.68325387E-04 -1.11203192E-05
  2.66231387E-10  4.97400272E-03  1.46031352E-03 -9.24198417E-04 -1.75487752E-09
  1.43337669E-03 -2.29363437E-04 -3.89918171E-04 -3.59913466E-04  2.53213644E-11
  4.68050950E-10  9.45079005E-05 -2.72320216E-04  7.56292297E-01  6.39864771E-01
  9.07966052E-08  3.19868465E-04  2.41805526E-02  1.99975400E-02  2.90318067E-09
 -3.74357754E-03 -5.92687369E-03 -7.36046830E-03 -9.05571044E-10 -1.51173398E-03
  1.22824220E-03  1.88535792E-04  2.73843225E-04 -1.42821051E-11  2.50061623E-10
 -2.32524916E-04 -5.02842969E-04 -2.32524946E-04 -5.02844744E-04 -1.85032984E-04
 -2.91676254E-03 -1.98436219E-03  3.64691551E-03  8.37979584E-05  1.27122749E-03
 -7.13490448E-04  4.01595551E-05  1.41103221E-10 -3.15434950E-03 -1.00207997E-03
 -4.20433157E-04 -9.34471705E-10 -1.26341184E-03  3.48197349E-04  2.46231382E-04
 -2.08393910E-04 -1.58790778E-12  3.10759685E-10  2.52415383E-03 -9.42763062E-03
 -6.39890833E-01  7.56503042E-01  1.08874731E-07  8.23708106E-04 -2.00218290E-02
  2.31256730E-02  3.33445597E-09 -5.56834829E-04  4.96096152E-03 -7.41972437E-03
 -9.82121748E-10  6.69522083E-04  4.31115762E-04 -6.50966061E-04 -6.27473522E-04
 -1.43927138E-10  2.36590844E-10  1.11203711E-04  1.63834831E-03  1.11203906E-04
  1.63834620E-03  2.56264304E-04 -2.39235650E-04 -1.49813104E-03  2.35620621E-03
 -2.22079958E-11 -1.21078361E-10 -1.15213787E-11 -5.22204383E-12 -3.68732723E-05
  6.52168350E-10  3.42718054E-10  9.10192402E-11 -5.81734016E-04  1.54402003E-11
  3.30236965E-10 -4.00669853E-10  9.13714652E-11 -3.87544222E-04 -4.86894660E-05
  1.21055235E-10 -3.91885773E-10  9.70643140E-10 -1.41856187E-07  9.91365933E-01
  3.84592844E-10  7.97626199E-11 -4.04653293E-09  2.87845787E-02 -1.35368219E-09
  1.72425116E-10  2.82059371E-10 -8.10532402E-03 -6.05288863E-11 -1.85160549E-10
  1.79614836E-10  6.01498433E-11 -4.35766905E-04  4.95431744E-04  9.83103145E-05
 -1.29396146E-03 -9.83105488E-05  1.29396427E-03  1.34962427E-10 -2.89213388E-09
 -5.60635624E-11  1.16210516E-09 -1.42779067E-01  2.71638597E-01  5.34332012E-02
 -4.95791888E-03 -8.59125190E-09  2.62771064E-01  1.93466233E-02  2.43759302E-03
  1.11472469E-08  5.63258067E-03 -3.69455935E-04 -1.40753554E-03 -7.26594616E-04
 -7.50649503E-10 -1.70125443E-09  5.34565557E-02 -2.43984650E-01  4.39813841E-02
 -2.69946101E-02 -2.67087069E-09  4.87633908E-01 -1.01771449E-01  6.58866490E-02
  6.77065608E-09  1.41647354E-01 -4.83524617E-04  3.31267982E-03 -7.63643527E-10
  2.17107063E-02  6.12224734E-03 -2.42000122E-02  1.66716562E-03  9.16534924E-10
  3.76573096E-09  8.17923476E-02  1.15149663E-02  8.17923409E-02  1.15149449E-02
  8.46178810E-02  1.66296420E-02  9.28033373E-02  3.26018083E-02  1.36917151E-01
 -2.70306289E-01  1.21705018E-01  1.02276976E-02  8.99411720E-09 -2.79906705E-01
  3.67575923E-02  3.76284302E-03  1.11613967E-09  1.20982243E-02 -6.33281954E-03
 -5.84954829E-03  3.26391806E-04  7.73742499E-10  5.42796293E-10  4.97996687E-02
 -2.26702854E-01 -3.35941028E-02 -4.39737117E-02 -5.86566627E-09  4.77382098E-01
  7.69173657E-02  1.09115902E-01  1.47578217E-08  1.91786923E-01  6.40231424E-03
  1.04857515E-02  2.30252160E-09 -2.33060775E-02  2.91676473E-02 -1.44470785E-02
  9.29284840E-03  4.29182530E-10  5.05821822E-09 -1.17701769E-01 -4.29748958E-02
 -1.17701773E-01 -4.29748944E-02 -1.24746196E-01 -4.57928155E-02  1.39981062E-01
  6.83274125E-02 -8.55058645E-03  1.86527492E-02 -1.26466617E-01  3.47443224E-01
 -1.92300711E-07  8.68468059E-04 -6.62752862E-02  1.78392222E-01 -7.68816274E-08
 -7.74790005E-03 -1.09879881E-02  1.75113556E-02 -3.38102953E-03  5.11360801E-09
 -1.02169860E-07 -1.30967255E-02  5.93100745E-02 -5.44747204E-02 -1.21237734E-01
  1.24355642E-08 -1.36176039E-01  1.37513951E-01  3.02211000E-01 -3.07401121E-08
 -7.65416541E-02  1.45518985E-02  7.95991451E-02 -1.50966922E-08 -2.85729273E-02
  4.16308147E-02 -4.52195529E-03 -1.19794267E-02  9.43412527E-09 -3.41641387E-09
  1.30771282E-01  9.14527934E-02  1.30770418E-01  9.14521686E-02 -1.64224614E-01
 -1.11781967E-01  1.55665853E-01  1.39870431E-01 -9.93773006E-09  1.98354443E-08
 -1.33537177E-07  7.65185898E-08  4.46059331E-01  1.86013316E-08 -8.41254743E-08
  5.37431770E-08  2.14595408E-01 -5.01736084E-09 -1.03989983E-07  1.08049621E-07
  2.45594421E-09 -1.05326108E-02  1.97226166E-02 -6.75031382E-09  2.95577457E-08
 -5.15157844E-08 -7.89366391E-08 -5.74955387E-02 -7.43139335E-08  1.29419641E-07
  1.97969315E-07  1.43144102E-01 -1.12241046E-08  1.83241338E-08  6.97271547E-08
  5.51174272E-02 -2.30437839E-08  2.34777536E-08  4.23371988E-09 -1.12015708E-10
 -2.52933044E-02  5.98402151E-03 -2.26442807E-01 -1.70987081E-01  2.26443401E-01
  1.70987498E-01 -5.17419929E-07 -3.87245016E-07  1.15872376E-07  7.79086258E-08
  5.85964517E-03 -1.02840714E-02 -2.84643655E-01 -2.65634135E-01 -1.20682792E-07
 -5.84222941E-02 -1.56245559E-01 -1.32551412E-01 -6.01690892E-08 -1.50007055E-02
  1.91490124E-02 -4.76378739E-03  1.27631258E-02  2.42655990E-09  7.21642757E-08
 -4.36632256E-03  1.91169790E-02 -1.33512223E-01 -8.15831637E-02  1.07769470E-08
 -4.84489636E-02  3.40515969E-01  2.09053850E-01 -2.70456666E-08 -2.32261358E-02
  8.35113026E-02  4.15636713E-02 -1.51070901E-08 -4.70918234E-02  5.21076088E-02
 -3.09450968E-03  3.41881880E-02  1.17177075E-08  1.14482232E-08 -2.51883492E-02
 -1.68395580E-02 -2.51878977E-02 -1.68391864E-02  2.27126242E-01  1.95944613E-01
  1.83983319E-01  1.92903107E-01 -1.60032377E-02  3.19926989E-02  2.35396996E-01
 -1.35352868E-01 -1.12049972E-08  8.29935657E-02  1.43365851E-01 -4.17485532E-02
  1.67319637E-08  9.27352327E-03  2.12605387E-03 -1.13150358E-02  1.15329228E-02
  7.20312196E-10  4.07118875E-08 -2.72500499E-02  1.27421348E-01  1.43035627E-01
 -1.55247730E-01 -9.76161134E-09 -2.79536798E-01 -3.66277185E-01  3.99108798E-01
  2.44806497E-08 -3.04736403E-01 -1.44027342E-01  1.42702290E-01  6.92764669E-09
  2.22036700E-02  2.65185504E-02 -2.32796119E-02 -2.23429566E-03  5.79613559E-10
  1.04541822E-08 -8.67359009E-02 -9.81672212E-02 -8.67355956E-02 -9.81669217E-02
  5.73002732E-02  6.32463985E-02  1.50462739E-01  1.86428070E-01  5.38964795E-10
 -4.22169010E-09  5.11242826E-12 -1.07172403E-08 -1.09895083E-01  7.73780866E-09
 -3.02916272E-09 -5.77540176E-09 -2.91619726E-02 -2.15862849E-09  3.98007062E-08
 -3.91169955E-08 -1.81196550E-09  2.20052584E-02 -8.41986307E-03 -1.24439380E-09
  5.97687575E-09  2.65513264E-10  2.80865080E-08 -2.60375501E-01 -1.24446141E-08
 -1.79120997E-11 -7.43095451E-08  6.85518428E-01 -2.41332412E-08 -4.76839431E-09
 -6.02727444E-08  4.35781936E-01 -1.63246533E-09  4.68036936E-09 -1.90052280E-09
  4.62398575E-09 -3.75662586E-03  1.61528874E-02  9.11866159E-02  1.29293885E-01
 -9.11868096E-02 -1.29294182E-01  1.99626964E-07  2.95051817E-07  8.38022129E-09
  3.42811832E-08 -1.00283637E-01  1.48133617E-01  2.07665214E-01 -1.59512919E-02
 -1.39856998E-07  1.20510306E+00  3.40567230E-01 -8.70550659E-02 -6.00912180E-07
 -6.91690324E-03 -7.32530964E-03 -7.32186190E-03  1.19348239E-02  3.63744785E-09
  2.19761149E-08  9.49628295E-04  5.71359681E-03 -1.28029981E-01 -9.95221542E-02
 -2.15784980E-08  4.01183673E-02  3.51948210E-01  2.82057697E-01  5.82731047E-08
 -4.16167988E-02  8.00145261E-01  5.76351551E-01  1.71035926E-07  1.17263697E-01
 -9.88279176E-02 -4.76212428E-03 -2.16765170E-02  2.07529191E-08  1.56559957E-09
 -2.77882991E-02 -3.14566493E-01 -2.77881358E-02 -3.14565223E-01  1.72613067E-02
 -2.47479354E-01 -1.51996957E-01 -8.69273441E-01 -6.98615338E-02  9.77204470E-02
  2.51716351E-01  1.78076535E-02  3.14105100E-07  7.87930346E-01  6.69886645E-01
  9.19113167E-02  1.27806074E-06 -2.21658029E-02  5.14028032E-03 -2.79792969E-03
 -1.14581714E-02 -1.86608122E-09 -2.02876839E-08 -3.60854300E-02  1.61391724E-01
 -7.43499981E-02  1.25615743E-01  3.03542743E-08 -4.22159602E-01  2.06986980E-01
 -3.76201545E-01 -8.13035929E-08 -1.16172314E+00  6.45350882E-01 -8.46451255E-01
 -3.16383468E-07  5.16565379E-02  2.68976143E-02 -7.73501668E-02  2.30511432E-02
 -5.06407165E-08 -7.33092173E-09  1.96930487E-03 -7.71497453E-03  1.96906449E-03
 -7.71741204E-03 -2.22596296E-02 -2.68429305E-03  1.35423298E-01  1.33699778E+00
 -1.08924960E-01  1.05847136E-01 -3.10484732E-01 -3.01227008E-02  1.78389525E-07
  2.01385705E+00 -7.31590499E-01 -1.29581156E-01  7.77310111E-07  6.00433484E-03
 -1.78811975E-02 -1.64805347E-02 -8.88161494E-03  3.97084397E-09 -2.56069208E-08
  1.25867656E-02 -2.54178369E-02  5.98610572E-02  3.86564887E-02  1.04670367E-08
  2.44895744E-01 -1.80053652E-01 -1.11983259E-01 -2.21841260E-08 -2.70955139E-01
 -2.18519477E-01 -2.30693408E-01 -1.92346537E-07 -2.74661411E-02  5.91846895E-02
 -6.55305833E-03  2.03693784E-02 -4.18759164E-08 -2.45460477E-08 -2.21038482E-02
 -9.89717977E-01 -2.21040479E-02 -9.89720272E-01 -6.97042300E-02 -1.28205530E+00
  9.79365698E-02  3.71546428E-01 -1.09942945E-02  4.74073789E-03 -4.61050382E-02
  3.74102139E-01  7.22406847E-08  2.15759207E-01 -8.49269208E-02  1.36357557E+00
  2.24281493E-07  4.47378168E-04  1.11698245E-02 -1.72233125E-02  1.45912120E-02
  4.34960264E-09  8.91873402E-08  4.20324936E-03 -8.71305109E-03 -2.24527803E-03
 -1.69518903E-02  2.33386211E-09  7.98719675E-02  1.05035366E-02  7.79936641E-02
 -8.14459557E-09 -7.47659526E-02 -8.98049376E-02 -3.41915416E-01 -2.45415887E-09
 -1.45384804E-02  4.10621317E-02 -1.48552901E-02 -7.23486301E-02  6.98156299E-09
  1.56267435E-07 -6.96431556E-02 -9.69510089E-01 -6.96428189E-02 -9.69504904E-01
  1.23928119E-01  1.57491497E+00 -1.65235852E-02  8.61722047E-02 -8.90327926E-08
  1.36800126E-07 -5.41313709E-08  1.18472493E-07 -3.92004616E-01  1.30779302E-06
 -4.41553489E-08  4.66243356E-07 -1.38217527E+00 -2.34301002E-08 -7.29305126E-08
  7.85543553E-08 -2.56735667E-08 -1.24469286E-02  1.67002330E-02 -4.84063202E-08
  1.61486447E-07  4.91677804E-08  2.33052173E-07  2.58375106E-03 -7.42486449E-07
 -1.59531507E-07 -7.41245671E-07 -2.85387035E-02 -6.27739940E-07  2.98372510E-10
 -1.14786470E-06  2.93635110E-01 -8.07056874E-08  1.93604739E-08  9.80726325E-10
  2.72042880E-08  7.68553711E-02  2.39759566E-02 -1.00469254E-01 -1.50791800E+00
  1.00469476E-01  1.50791976E+00 -3.04977237E-07 -3.57118819E-06  2.99229833E-07
  2.01679628E-06  2.19019689E-02 -1.06781826E-01 -9.52732828E-02  4.32194465E-02
  2.65733852E-07  7.81004487E-02 -3.33615838E-01  3.04423599E-02  2.07430834E-07
  4.20488877E-02 -1.36894025E-02 -2.87770017E-02  1.16470423E-02  1.78470508E-08
  7.85658978E-08 -1.79699560E-02 -7.40014107E-03  1.96428659E-01  1.48093512E-01
 -8.60313207E-08 -4.88708473E-01 -7.85949920E-01 -6.42686453E-01  3.42749638E-07
  1.09545917E+00  6.63008191E-01  1.12824880E+00 -3.38179235E-07  1.77752634E-02
 -1.95693101E-01  8.72291972E-02 -5.20458263E-02 -4.35392326E-08  6.48327598E-09
 -9.04290095E-02 -1.21758631E-01 -9.04288029E-02 -1.21758757E-01  2.09160202E-02
  2.03153108E-01 -2.39598798E-01 -3.65640461E-01 -1.24399026E-03 -7.34730111E-03
 -1.25025074E-01 -1.38325166E-02  1.11005375E-07  8.85141224E-02 -2.00845875E-01
 -4.63578542E-02  3.42420927E-08 -2.76233739E-03 -1.39938320E-02  9.91597669E-03
  3.36883357E-03  6.41748821E-09 -6.45375626E-08 -4.34354273E-02  4.98419743E-02
  1.16038959E-01 -2.04833938E-01 -5.48422738E-08 -9.92944056E-01 -4.43037330E-01
  8.22965632E-01  2.22372883E-07  1.47002401E+00  2.55104184E-01 -7.01322200E-01
 -2.30203142E-07 -1.10204062E-01 -7.52144459E-03  1.11832175E-02 -2.74123924E-02
 -2.70216785E-08 -3.72135078E-08  2.28430371E-04 -5.92834768E-02  2.28281117E-04
 -5.92842416E-02 -7.10994379E-02 -2.98662787E-01  3.17940106E-02 -2.99991503E-01
 -2.49946459E-02  2.03205885E-01 -1.45583429E-01 -2.36540028E-02  2.27516363E-07
 -5.06386572E-01 -3.37345893E-01  1.18270074E-02  4.13505248E-08 -8.91403560E-02
  4.66468001E-02  4.30853823E-02  2.30140132E-02  2.12822227E-08  8.14374715E-08
 -3.93524711E-02 -1.40664407E-02 -1.74105841E-01  6.14075347E-02 -6.41574635E-07
 -1.05696339E+00  7.48470587E-01 -2.80248342E-01  2.58864063E-06  2.28273402E+00
 -1.37866893E+00  8.43455974E-01 -2.71379722E-06 -2.17109076E-01 -1.25564458E-01
  1.33238129E-01 -3.45977987E-02 -9.73178486E-08  2.27903779E-08 -1.14036454E-02
 -3.82851958E-01 -1.14031901E-02 -3.82851917E-01  9.82431445E-02 -3.71783428E-01
 -1.14831529E-01 -6.99925221E-01 -4.36155796E-08  3.81383382E-07 -3.88344671E-07
 -9.52310866E-08  4.01471600E-02 -1.08331309E-06 -8.80224742E-07  7.54775122E-08
  2.76287977E-02 -1.80917070E-07  1.80424963E-07 -2.99132829E-09  6.31552210E-08
 -1.73306353E-03 -1.65707721E-02 -9.39023048E-08 -4.13286179E-08 -3.04733944E-07
  1.11743144E-07  2.95318110E-01 -2.55002967E-06  1.33474806E-06 -5.54796108E-07
 -1.19282277E+00  5.56962510E-06 -2.77278099E-06  2.06578633E-06  1.27109041E+00
 -4.75622765E-07 -3.52344442E-07  3.25756642E-07 -1.17550609E-07  2.87731882E-02
 -2.55423570E-02  6.52499382E-02  1.86220593E-01 -6.52502153E-02 -1.86222741E-01
  3.69887194E-07 -3.61435564E-07 -4.15142391E-07 -1.75205347E-06  7.27994235E-04
 -5.09253714E-02 -6.04382072E-02 -7.33860056E-01 -1.14747143E-06  1.71412953E-01
  1.39085231E-01  1.30321023E+00  1.75870367E-06  9.49970714E-03  5.43038654E-02
 -7.26416661E-02  6.91677195E-02  7.58160494E-08  3.16654348E-07  8.55938121E-03
 -2.50909511E-03  3.61428580E-03 -2.65844732E-02 -1.48402256E-08  2.19911844E-01
 -2.19835592E-02  1.22546234E-01  8.75761029E-08 -6.10696999E-01  8.44161052E-02
 -7.14273994E-01 -5.90242094E-07 -2.69606643E-03  5.63046656E-02 -3.04100271E-02
 -3.35336539E-01 -3.63863111E-07  1.02770426E-07 -2.04301281E-01 -8.68474142E-04
 -2.04300847E-01 -8.68139789E-04  3.98514702E-01  7.40677480E-02 -1.40103529E-01
  5.44600436E-01  4.82636724E-09  2.23409274E-08 -8.78934233E-08  1.06128315E-06
 -7.14309037E-01 -2.30214521E-07 -1.50596189E-07 -2.04672987E-06  1.36416795E+00
 -3.08719742E-08  3.17817942E-07 -2.83689030E-07 -9.05155939E-08  7.74390225E-02
 -8.00718274E-02 -1.38949921E-08 -2.45659230E-08 -3.84941842E-09  2.76775253E-10
  6.67515641E-03 -4.36556840E-07  4.62540695E-08 -7.19543459E-08 -3.16169683E-03
  1.13667940E-06 -1.98484172E-07  1.14615852E-06 -3.63285713E-01 -1.98190050E-08
 -2.18329780E-07  1.45895729E-07  5.02917240E-07 -3.56936306E-01 -1.51098317E-02
  3.69991802E-01  1.18425879E-01 -3.69992072E-01 -1.18426047E-01  3.10735997E-07
 -7.64578427E-08 -1.50433652E-07 -6.54447080E-07  2.59665955E-02 -1.03363036E-01
 -8.50165756E-01  3.87242253E-02  2.54242692E-08  1.98963937E-02  2.03714082E+00
 -1.00546637E-01 -1.42999866E-07 -9.26544786E-02  3.04091675E-02  3.52235258E-02
 -1.08644895E-03 -2.44596390E-08 -1.55777792E-08  1.52003987E-02 -1.55511532E-02
  7.77625506E-02  8.56954771E-03 -1.82470668E-09  3.77656501E-01 -2.04924924E-01