UNK_CS                                                                  
Freq      RB3LYP                                                      6-31G(d)            
Number of atoms                            I                6
Info1-9                                    I   N=           9
          10           9           0           0           0         100
           6          18        -502
Charge                                     I                0
Multiplicity                               I                1
Number of electrons                        I               26
Number of alpha electrons                  I               13
Number of beta electrons                   I               13
Number of basis functions                  I               42
Number of independent functions            I               42
Number of point charges in /Mol/           I                0
Number of translation vectors              I                0
Atomic numbers                             I   N=           6
           6          16           1           1           1           1
Nuclear charges                            R   N=           6
  6.00000000E+00  1.60000000E+01  1.00000000E+00  1.00000000E+00  1.00000000E+00
  1.00000000E+00
Current cartesian coordinates              R   N=          18
 -2.20159970E+00  3.68951528E-02  1.38777878E-17  1.26194123E+00 -1.64734564E-01
  4.85722573E-17 -2.90250382E+00  9.88011683E-01 -1.69273845E+00 -2.90250397E+00
  9.88004970E-01  1.69274215E+00 -2.89276578E+00 -1.90852919E+00 -3.73805331E-06
  1.71631209E+00  2.34689464E+00  2.33118253E-07
Force Field                                I                0
Int Atom Types                             I   N=           6
           0           0           0           0           0           0
MM charges                                 R   N=           6
  0.00000000E+00  0.00000000E+00  0.00000000E+00  0.00000000E+00  0.00000000E+00
  0.00000000E+00
Integer atomic weights                     I   N=           6
          12          32           1           1           1           1
Real atomic weights                        R   N=           6
  1.20000000E+01  3.19720718E+01  1.00782504E+00  1.00782504E+00  1.00782504E+00
  1.00782504E+00
Atom fragment info                         I   N=           6
           0           0           0           0           0           0
Atom residue num                           I   N=           6
           0           0           0           0           0           0
Nuclear spins                              I   N=           6
           0           0           1           1           1           1
Nuclear ZEff                               R   N=           6
 -3.60000000E+00 -1.36000000E+01 -1.00000000E+00 -1.00000000E+00 -1.00000000E+00
 -1.00000000E+00
Nuclear ZNuc                               R   N=           6
  6.00000000E+00  1.60000000E+01  1.00000000E+00  1.00000000E+00  1.00000000E+00
  1.00000000E+00
Nuclear QMom                               R   N=           6
  0.00000000E+00  0.00000000E+00  0.00000000E+00  0.00000000E+00  0.00000000E+00
  0.00000000E+00
Nuclear GFac                               R   N=           6
  0.00000000E+00  0.00000000E+00  2.79284600E+00  2.79284600E+00  2.79284600E+00
  2.79284600E+00
MicOpt                                     I   N=           6
          -1          -1          -1          -1          -1          -1
Number of contracted shells                I               17
Number of primitive shells                 I               44
Pure/Cartesian d shells                    I                1
Pure/Cartesian f shells                    I                0
Highest angular momentum                   I                2
Largest degree of contraction              I                6
Shell types                                I   N=          17
           0          -1          -1           2           0          -1
          -1          -1           2           0           0           0
           0           0           0           0           0
Number of primitives per shell             I   N=          17
           6           3           1           1           6           6
           3           1           1           3           1           3
           1           3           1           3           1
Shell to atom map                          I   N=          17
           1           1           1           1           2           2
           2           2           2           3           3           4
           4           5           5           6           6
Primitive exponents                        R   N=          44
  3.04752488E+03  4.57369518E+02  1.03948685E+02  2.92101553E+01  9.28666296E+00
  3.16392696E+00  7.86827235E+00  1.88128854E+00  5.44249258E-01  1.68714478E-01
  8.00000000E-01  2.19171000E+04  3.30149000E+03  7.54146000E+02  2.12711000E+02
  6.79896000E+01  2.30515000E+01  4.23735000E+02  1.00710000E+02  3.21599000E+01
  1.18079000E+01  4.63110000E+00  1.87025000E+00  2.61584000E+00  9.22167000E-01
  3.41287000E-01  1.17167000E-01  6.50000000E-01  1.87311370E+01  2.82539436E+00
  6.40121692E-01  1.61277759E-01  1.87311370E+01  2.82539436E+00  6.40121692E-01
  1.61277759E-01  1.87311370E+01  2.82539436E+00  6.40121692E-01  1.61277759E-01
  1.87311370E+01  2.82539436E+00  6.40121692E-01  1.61277759E-01
Contraction coefficients                   R   N=          44
  1.83473713E-03  1.40373228E-02  6.88426223E-02  2.32184443E-01  4.67941348E-01
  3.62311985E-01 -1.19332420E-01 -1.60854152E-01  1.14345644E+00  1.00000000E+00
  1.00000000E+00  1.86924085E-03  1.42303065E-02  6.96962317E-02  2.38487108E-01
  4.83307220E-01  3.38074154E-01 -2.37677050E-03 -3.16930067E-02 -1.13317024E-01
  5.60900118E-02  5.92255124E-01  4.55006095E-01 -2.50373114E-01  6.69567631E-02
  1.05450627E+00  1.00000000E+00  1.00000000E+00  3.34946043E-02  2.34726953E-01
  8.13757326E-01  1.00000000E+00  3.34946043E-02  2.34726953E-01  8.13757326E-01
  1.00000000E+00  3.34946043E-02  2.34726953E-01  8.13757326E-01  1.00000000E+00
  3.34946043E-02  2.34726953E-01  8.13757326E-01  1.00000000E+00
P(S=P) Contraction coefficients            R   N=          44
  0.00000000E+00  0.00000000E+00  0.00000000E+00  0.00000000E+00  0.00000000E+00
  0.00000000E+00  6.89990666E-02  3.16423961E-01  7.44308291E-01  1.00000000E+00
  0.00000000E+00  0.00000000E+00  0.00000000E+00  0.00000000E+00  0.00000000E+00
  0.00000000E+00  0.00000000E+00  4.06100998E-03  3.06812999E-02  1.30451999E-01
  3.27204999E-01  4.52850998E-01  2.56041999E-01 -1.45104895E-02  3.10262776E-01
  7.54482456E-01  1.00000000E+00  0.00000000E+00  0.00000000E+00  0.00000000E+00
  0.00000000E+00  0.00000000E+00  0.00000000E+00  0.00000000E+00  0.00000000E+00
  0.00000000E+00  0.00000000E+00  0.00000000E+00  0.00000000E+00  0.00000000E+00
  0.00000000E+00  0.00000000E+00  0.00000000E+00  0.00000000E+00
Coordinates of each shell                  R   N=          51
 -2.20159970E+00  3.68951528E-02  0.00000000E+00 -2.20159970E+00  3.68951528E-02
  0.00000000E+00 -2.20159970E+00  3.68951528E-02  0.00000000E+00 -2.20159970E+00
  3.68951528E-02  0.00000000E+00  1.26194123E+00 -1.64734564E-01  2.77555756E-17
  1.26194123E+00 -1.64734564E-01  2.77555756E-17  1.26194123E+00 -1.64734564E-01
  2.77555756E-17  1.26194123E+00 -1.64734564E-01  2.77555756E-17  1.26194123E+00
 -1.64734564E-01  2.77555756E-17 -2.90250382E+00  9.88011683E-01 -1.69273845E+00
 -2.90250382E+00  9.88011683E-01 -1.69273845E+00 -2.90250397E+00  9.88004970E-01
  1.69274215E+00 -2.90250397E+00  9.88004970E-01  1.69274215E+00 -2.89276578E+00
 -1.90852919E+00 -3.73805331E-06 -2.89276578E+00 -1.90852919E+00 -3.73805331E-06
  1.71631209E+00  2.34689464E+00  2.33118253E-07  1.71631209E+00  2.34689464E+00
  2.33118253E-07
Constraint Structure                       R   N=          18
 -2.20159970E+00  3.68951528E-02  0.00000000E+00  1.26194123E+00 -1.64734564E-01
  2.77555756E-17 -2.90250382E+00  9.88011683E-01 -1.69273845E+00 -2.90250397E+00
  9.88004970E-01  1.69274215E+00 -2.89276578E+00 -1.90852919E+00 -3.73805331E-06
  1.71631209E+00  2.34689464E+00  2.33118253E-07
Num ILSW                                   I              100
ILSW                                       I   N=         100
           0           1           0           0           2           0
           0           0           0           0         402          -1
           0           0           0           0           2           0
           0           0           1           0           1           0
           1           0           0           0           0           0
           0           0      100000           0          -1           0
           0           0           0           0           0           0
           0           0           0           1           0           0
           0           0           1           0           0           0
           0           0           4          41           0           0
           0           0           5           0           0           0
           0           0           0           0           0           0
           0           0           0           0           0           0
           0           0           0           0           0           0
           0           0           0           0           0           0
           0           0           0           0           0           0
           0           0           0           0
Num RLSW                                   I               41
RLSW                                       R   N=          41
  8.00000000E-01  7.20000000E-01  1.00000000E+00  8.10000000E-01  2.00000000E-01
  0.00000000E+00  0.00000000E+00  1.00000000E+00  0.00000000E+00  0.00000000E+00
  0.00000000E+00  0.00000000E+00  1.00000000E+00  0.00000000E+00  0.00000000E+00
  0.00000000E+00  0.00000000E+00  1.00000000E+00  0.00000000E+00  0.00000000E+00
  0.00000000E+00  0.00000000E+00  1.00000000E+00  0.00000000E+00  0.00000000E+00
  0.00000000E+00  0.00000000E+00  1.00000000E+00  0.00000000E+00  0.00000000E+00
  0.00000000E+00  0.00000000E+00  1.00000000E+00  0.00000000E+00  0.00000000E+00
  0.00000000E+00  0.00000000E+00  0.00000000E+00  1.00000000E+00  1.00000000E+00
  0.00000000E+00
MxBond                                     I                4
NBond                                      I   N=           6
           4           2           1           1           1           1
IBond                                      I   N=          24
           2           3           4           5           1           6
           0           0           1           0           0           0
           1           0           0           0           1           0
           0           0           2           0           0           0
RBond                                      R   N=          24
  1.00000000E+00  1.00000000E+00  1.00000000E+00  1.00000000E+00  1.00000000E+00
  1.00000000E+00  0.00000000E+00  0.00000000E+00  1.00000000E+00  0.00000000E+00
  0.00000000E+00  0.00000000E+00  1.00000000E+00  0.00000000E+00  0.00000000E+00
  0.00000000E+00  1.00000000E+00  0.00000000E+00  0.00000000E+00  0.00000000E+00
  1.00000000E+00  0.00000000E+00  0.00000000E+00  0.00000000E+00
Virial Ratio                               R      2.003931075780767E+00
SCF Energy                                 R     -4.386983484443423E+02
Total Energy                               R     -4.386983484443423E+02
RMS Force                                  R      3.193659630412563E-06
RMS Density                                R      7.539699120000337E-09
External E-field                           R   N=          35
  0.00000000E+00  0.00000000E+00  0.00000000E+00  0.00000000E+00  0.00000000E+00
  0.00000000E+00  0.00000000E+00  0.00000000E+00  0.00000000E+00  0.00000000E+00
  0.00000000E+00  0.00000000E+00  0.00000000E+00  0.00000000E+00  0.00000000E+00
  0.00000000E+00  0.00000000E+00  0.00000000E+00  0.00000000E+00  0.00000000E+00
  0.00000000E+00  0.00000000E+00  0.00000000E+00  0.00000000E+00  0.00000000E+00
  0.00000000E+00  0.00000000E+00  0.00000000E+00  0.00000000E+00  0.00000000E+00
  0.00000000E+00  0.00000000E+00  0.00000000E+00  0.00000000E+00  0.00000000E+00
IOpCl                                      I                0
IROHF                                      I                0
Alpha Orbital Energies                     R   N=          42
 -8.88741951E+01 -1.02171972E+01 -7.93741472E+00 -5.90252821E+00 -5.89888778E+00
 -5.89152200E+00 -7.78041472E-01 -6.47725200E-01 -4.50021403E-01 -4.30520334E-01
 -3.93023484E-01 -3.32758834E-01 -2.36380389E-01  2.77389744E-02  7.06617900E-02
  1.24075621E-01  1.45106639E-01  1.50271362E-01  3.48876358E-01  3.62632993E-01
  3.80480269E-01  3.86191382E-01  5.06100894E-01  5.24639368E-01  5.83412772E-01
  7.24256356E-01  7.72331925E-01  8.32270344E-01  8.58330978E-01  8.76887844E-01
  8.81916963E-01  8.99944497E-01  9.90936965E-01  1.13790054E+00  1.22130038E+00
  1.68883095E+00  1.70288363E+00  2.12814249E+00  2.22104438E+00  2.22763130E+00
  3.89583505E+00  4.17103608E+00
Alpha MO coefficients                      R   N=        1764
 -1.18955974E-05  3.92800761E-05  1.37006653E-04 -9.08206275E-06 -3.52452341E-11
  3.50079921E-04 -1.82996154E-04 -1.49391524E-05  1.86233507E-10 -5.34209375E-05
 -1.89941387E-05 -2.89547857E-05 -2.43129382E-07 -8.76589280E-12  1.79145816E-11
  9.96111937E-01  1.48634671E-02 -5.78439124E-05  6.46887484E-05  1.15843806E-11
 -2.41205613E-02  9.44888525E-05 -6.68844452E-05 -1.46343751E-11  3.20384832E-03
 -1.56083467E-04  2.27177707E-04  2.19704434E-12  8.46675533E-03  8.47214762E-03
  8.47084827E-03 -1.83086943E-06  1.16572687E-11  1.99635169E-12 -2.56727376E-05
 -2.49283939E-04 -2.56727341E-05 -2.49284257E-04 -3.87772077E-05 -2.28826046E-04
  1.75548677E-04 -3.99399277E-04  9.92899889E-01  4.96136244E-02  3.90182847E-04
 -7.17438198E-05 -2.01106977E-10 -1.48705898E-02 -6.75902247E-04  1.84542740E-04
  3.02195101E-10 -9.35591855E-03 -9.12126418E-03 -9.12117039E-03 -4.69766282E-06
  5.80229192E-13 -5.78636295E-11 -3.66865955E-07 -3.48683466E-05  1.81829692E-05
  1.94781629E-06  2.94089231E-12  1.23420229E-04 -3.48089621E-04 -1.21080800E-05
 -1.96424843E-11  2.85654215E-03 -1.61839916E-03  4.45693720E-04  4.29077225E-11
 -1.09767088E-04 -7.63383848E-05 -1.69400942E-04  7.13908260E-06  4.79846854E-12
 -2.26438918E-12 -1.08833189E-04  2.31917232E-03 -1.08833064E-04  2.31917215E-03
 -1.01411277E-04  2.46825591E-03 -1.07009355E-04 -3.82837225E-04  1.66596354E-05
  5.84559908E-04 -8.04374262E-04  5.43559665E-05  3.54819005E-10 -1.12723608E-03
  1.43856475E-03  1.55679829E-04 -1.94522600E-09 -8.14678598E-04  8.44002715E-05
  1.82406465E-04  8.46209458E-05  5.99427203E-11 -1.78690222E-10 -2.79741653E-01
  1.02199319E+00 -5.19483420E-03  6.71688656E-03  1.34260824E-09  7.87783830E-02
 -1.17870091E-03  1.04044886E-03  2.47610422E-10 -1.90334646E-02  1.75001929E-03
 -2.54890496E-03 -8.31865368E-11 -1.73175665E-02 -1.74493116E-02 -1.80535556E-02
  1.48693275E-04 -9.18885720E-11  8.37871118E-11 -5.91586497E-05  1.72767417E-03
 -5.91587132E-05  1.72767742E-03  8.22549269E-05  1.45103151E-03 -1.37477670E-03
  4.01654606E-03 -1.26412334E-04 -1.65896448E-03  8.68325374E-04 -1.11203300E-05
  2.65373817E-10  4.97400253E-03  1.46031350E-03 -9.24198314E-04 -1.74072116E-09
  1.43337667E-03 -2.29363429E-04 -3.89918139E-04 -3.59913440E-04  2.56359650E-11
  4.72635182E-10  9.45087336E-05 -2.72323319E-04  7.56292308E-01  6.39864758E-01
  8.98470053E-08  3.19869585E-04  2.41805521E-02  1.99975390E-02  2.87340415E-09
 -3.74357751E-03 -5.92687343E-03 -7.36046780E-03 -8.98268416E-10 -1.51173447E-03
  1.22824218E-03  1.88535257E-04  2.73843584E-04 -1.20485658E-11  2.50819531E-10
 -2.32524911E-04 -5.02842940E-04 -2.32524947E-04 -5.02844758E-04 -1.85032974E-04
 -2.91676234E-03 -1.98436216E-03  3.64691524E-03  8.37979460E-05  1.27122735E-03
 -7.13490402E-04  4.01595665E-05  1.44268631E-10 -3.15434916E-03 -1.00207983E-03
 -4.20433279E-04 -9.67041714E-10 -1.26341171E-03  3.48197328E-04  2.46231347E-04
 -2.08393932E-04  3.71871084E-13  3.08332551E-10  2.52415480E-03 -9.42763423E-03
 -6.39890820E-01  7.56503053E-01  1.07068423E-07  8.23709377E-04 -2.00218278E-02
  2.31256726E-02  3.28310803E-09 -5.56835070E-04  4.96096126E-03 -7.41972408E-03
 -9.66352124E-10  6.69521369E-04  4.31115799E-04 -6.50966647E-04 -6.27473765E-04
 -1.45553669E-10  2.36576641E-10  1.11203703E-04  1.63834825E-03  1.11203911E-04
  1.63834616E-03  2.56264274E-04 -2.39235742E-04 -1.49813108E-03  2.35620611E-03
 -2.10960166E-11 -1.15383115E-10 -1.08024247E-11 -5.23187193E-12 -3.68732766E-05
  6.26235376E-10  3.40085324E-10  8.56002350E-11 -5.81733979E-04  1.68942332E-11
  3.34555482E-10 -4.02980836E-10  9.12887560E-11 -3.87544210E-04 -4.86894669E-05
  1.27175584E-10 -4.13638734E-10  5.30346340E-10 -1.39864332E-07  9.91365934E-01
  3.96246390E-10  6.29474305E-11 -3.98568532E-09  2.87845777E-02 -1.36855919E-09
  1.77661004E-10  2.55163067E-10 -8.10532366E-03 -6.17619972E-11 -1.84532338E-10
  1.78766751E-10  5.91630158E-11 -4.35766875E-04  4.95432163E-04  9.83103059E-05
 -1.29396136E-03 -9.83105335E-05  1.29396422E-03  1.36371019E-10 -2.90675205E-09
 -6.13276475E-11  1.17878425E-09 -1.42779051E-01  2.71638568E-01  5.34332120E-02
 -4.95790801E-03 -8.23303640E-09  2.62771032E-01  1.93466261E-02  2.43760068E-03
  1.14335494E-08  5.63258196E-03 -3.69457435E-04 -1.40753570E-03 -7.26594399E-04
 -6.69266517E-10 -1.67140076E-09  5.34565612E-02 -2.43984674E-01  4.39813806E-02
 -2.69946224E-02 -2.72575810E-09  4.87633968E-01 -1.01771442E-01  6.58866813E-02
  6.90131346E-09  1.41647365E-01 -4.83524111E-04  3.31268298E-03 -7.07893485E-10
  2.17107016E-02  6.12225157E-03 -2.42000164E-02  1.66716535E-03  8.79214058E-10
  3.76548382E-09  8.17923373E-02  1.15149624E-02  8.17923309E-02  1.15149408E-02
  8.46178610E-02  1.66296357E-02  9.28033585E-02  3.26018177E-02  1.36917168E-01
 -2.70306322E-01  1.21704999E-01  1.02276854E-02  8.72257434E-09 -2.79906737E-01
  3.67575816E-02  3.76283595E-03  1.02562094E-09  1.20982226E-02 -6.33281802E-03
 -5.84954830E-03  3.26393168E-04  6.62497968E-10  5.40265050E-10  4.97996622E-02
 -2.26702824E-01 -3.35941142E-02 -4.39737202E-02 -5.86387729E-09  4.77382046E-01
  7.69173944E-02  1.09115927E-01  1.47641068E-08  1.91786892E-01  6.40231526E-03
  1.04857544E-02  2.31639696E-09 -2.33060853E-02  2.91676512E-02 -1.44470785E-02
  9.29285078E-03  4.49895639E-10  5.04171168E-09 -1.17701780E-01 -4.29748972E-02
 -1.17701784E-01 -4.29748956E-02 -1.24746191E-01 -4.57928078E-02  1.39981067E-01
  6.83274190E-02 -8.55058325E-03  1.86527429E-02 -1.26466672E-01  3.47443160E-01
 -1.93775824E-07  8.68451849E-04 -6.62753090E-02  1.78392196E-01 -7.76573442E-08
 -7.74790429E-03 -1.09879820E-02  1.75113535E-02 -3.38102667E-03  5.27945223E-09
 -1.02661275E-07 -1.30967305E-02  5.93100972E-02 -5.44747459E-02 -1.21237759E-01
  1.25560222E-08 -1.36176094E-01  1.37514018E-01  3.02211067E-01 -3.10370849E-08
 -7.65416827E-02  1.45519067E-02  7.95991518E-02 -1.52076843E-08 -2.85729391E-02
  4.16308335E-02 -4.52195726E-03 -1.19794178E-02  9.48117478E-09 -3.43115137E-09
  1.30771274E-01  9.14527854E-02  1.30770404E-01  9.14521568E-02 -1.64224557E-01
 -1.11781912E-01  1.55665902E-01  1.39870485E-01 -9.93538664E-09  1.97984313E-08
 -1.29758431E-07  8.00920467E-08  4.46059330E-01  1.88479040E-08 -8.22664800E-08
  5.54766416E-08  2.14595402E-01 -5.07740960E-09 -1.04748834E-07  1.08886753E-07
  2.47420609E-09 -1.05326099E-02  1.97226184E-02 -6.91525792E-09  3.02999424E-08
 -5.02581041E-08 -7.90266106E-08 -5.74955444E-02 -7.60222867E-08  1.26301607E-07
  1.98157543E-07  1.43144119E-01 -1.22826430E-08  1.75950828E-08  7.01618100E-08
  5.51174321E-02 -2.26559574E-08  2.31132704E-08  4.25831964E-09 -5.38745613E-10
 -2.52933056E-02  5.98402407E-03 -2.26442805E-01 -1.70987079E-01  2.26443403E-01
  1.70987499E-01 -5.22621194E-07 -3.91230630E-07  1.14944080E-07  7.68066918E-08
  5.85963755E-03 -1.02840559E-02 -2.84643636E-01 -2.65634218E-01 -1.15844032E-07
 -5.84222675E-02 -1.56245546E-01 -1.32551466E-01 -5.76552848E-08 -1.50007046E-02
  1.91490144E-02 -4.76379045E-03  1.27631243E-02  2.29835795E-09  7.26644497E-08
 -4.36632235E-03  1.91169783E-02 -1.33512212E-01 -8.15831308E-02  1.00400210E-08
 -4.84489608E-02  3.40515946E-01  2.09053769E-01 -2.51940862E-08 -2.32261327E-02
  8.35112958E-02  4.15636416E-02 -1.43266121E-08 -4.70918163E-02  5.21076019E-02
 -3.09450885E-03  3.41881972E-02  1.14543080E-08  1.15578396E-08 -2.51883726E-02
 -1.68395753E-02 -2.51879144E-02 -1.68391978E-02  2.27126278E-01  1.95944622E-01
  1.83983280E-01  1.92903074E-01 -1.60032368E-02  3.19926977E-02  2.35396991E-01
 -1.35352890E-01 -1.28055700E-08  8.29935566E-02  1.43365839E-01 -4.17485603E-02
  1.57748302E-08  9.27352360E-03  2.12605422E-03 -1.13150363E-02  1.15329242E-02
  6.46641578E-10  4.08771250E-08 -2.72500511E-02  1.27421352E-01  1.43035632E-01
 -1.55247722E-01 -9.08470080E-09 -2.79536816E-01 -3.66277203E-01  3.99108780E-01
  2.27355103E-08 -3.04736394E-01 -1.44027349E-01  1.42702272E-01  6.08274550E-09
  2.22036692E-02  2.65185575E-02 -2.32796125E-02 -2.23429876E-03  7.30512830E-10
  1.04574301E-08 -8.67359075E-02 -9.81672257E-02 -8.67356008E-02 -9.81669248E-02
  5.73002849E-02  6.32464069E-02  1.50462737E-01  1.86428074E-01  6.21688500E-10
 -4.33023294E-09  4.39437951E-10 -1.11507632E-08 -1.09895091E-01  7.22820487E-09
 -2.36803226E-09 -6.24804477E-09 -2.91619779E-02 -2.02642413E-09  3.99940709E-08
 -3.94231469E-08 -1.83268572E-09  2.20052583E-02 -8.41986362E-03 -1.26376579E-09
  6.06531232E-09  8.73282328E-10  2.78402313E-08 -2.60375505E-01 -1.26559826E-08
 -1.61554620E-09 -7.36484169E-08  6.85518449E-01 -2.42743056E-08 -5.59443403E-09
 -5.97121859E-08  4.35781910E-01 -1.57053963E-09  4.68470181E-09 -1.92216579E-09
  4.62890968E-09 -3.75662492E-03  1.61528980E-02  9.11866191E-02  1.29293882E-01
 -9.11868142E-02 -1.29294181E-01  2.00594977E-07  2.96404363E-07  8.50493797E-09
  3.41321089E-08 -1.00283627E-01  1.48133607E-01  2.07665218E-01 -1.59512812E-02
 -1.41837193E-07  1.20510289E+00  3.40567216E-01 -8.70550407E-02 -6.06042278E-07
 -6.91690091E-03 -7.32530953E-03 -7.32186121E-03  1.19348263E-02  3.64504121E-09
  2.21497703E-08  9.49629756E-04  5.71358949E-03 -1.28029980E-01 -9.95221742E-02
 -2.18349539E-08  4.01183815E-02  3.51948215E-01  2.82057761E-01  5.89751126E-08
 -4.16167155E-02  8.00145199E-01  5.76351595E-01  1.72526784E-07  1.17263699E-01
 -9.88279196E-02 -4.76212261E-03 -2.16765139E-02  2.11609979E-08  1.65911951E-09
 -2.77883019E-02 -3.14566464E-01 -2.77881367E-02 -3.14565184E-01  1.72613112E-02
 -2.47479249E-01 -1.51996978E-01 -8.69273535E-01 -6.98615408E-02  9.77204573E-02
  2.51716379E-01  1.78076536E-02  3.13847794E-07  7.87930423E-01  6.69886647E-01
  9.19112840E-02  1.27948685E-06 -2.21658010E-02  5.14027878E-03 -2.79793060E-03
 -1.14581694E-02 -1.87599448E-09 -2.02972002E-08 -3.60854296E-02  1.61391721E-01
 -7.43500075E-02  1.25615747E-01  3.02261307E-08 -4.22159608E-01  2.06987007E-01
 -3.76201571E-01 -8.09467083E-08 -1.16172308E+00  6.45350925E-01 -8.46451138E-01
 -3.16364926E-07  5.16565569E-02  2.68975986E-02 -7.73501644E-02  2.30511469E-02
 -5.05661427E-08 -7.38461462E-09  1.96930010E-03 -7.71499115E-03  1.96905974E-03
 -7.71743339E-03 -2.22596315E-02 -2.68433273E-03  1.35423296E-01  1.33699767E+00
 -1.08924968E-01  1.05847149E-01 -3.10484733E-01 -3.01225864E-02  1.83378394E-07
  2.01385717E+00 -7.31590488E-01 -1.29580799E-01  7.96146595E-07  6.00433539E-03
 -1.78811971E-02 -1.64805392E-02 -8.88161323E-03  4.10562610E-09 -2.59029937E-08
  1.25867675E-02 -2.54178393E-02  5.98610522E-02  3.86564795E-02  1.04015523E-08
  2.44895788E-01 -1.80053642E-01 -1.11983224E-01 -2.18529007E-08 -2.70955194E-01
 -2.18519428E-01 -2.30693470E-01 -1.95019574E-07 -2.74661373E-02  5.91846949E-02
 -6.55306352E-03  2.03693573E-02 -4.25985614E-08 -2.50165779E-08 -2.21038639E-02
 -9.89718232E-01 -2.21040672E-02 -9.89720562E-01 -6.97042010E-02 -1.28205487E+00
  9.79365629E-02  3.71546399E-01 -1.09942638E-02  4.74070465E-03 -4.61049593E-02
  3.74102138E-01  6.69384983E-08  2.15758643E-01 -8.49267138E-02  1.36357562E+00
  2.06304632E-07  4.47374151E-04  1.11698337E-02 -1.72233098E-02  1.45912159E-02
  4.08927719E-09  8.98974203E-08  4.20324511E-03 -8.71304128E-03 -2.24529624E-03
 -1.69518987E-02  2.13091932E-09  7.98718898E-02  1.05035942E-02  7.79936915E-02
 -7.88115826E-09 -7.47658977E-02 -8.98048932E-02 -3.41915396E-01  2.69087392E-09
 -1.45384790E-02  4.10621225E-02 -1.48552914E-02 -7.23486416E-02  8.45380696E-09
  1.57223268E-07 -6.96431576E-02 -9.69509841E-01 -6.96428162E-02 -9.69504586E-01
  1.23928142E-01  1.57491532E+00 -1.65236079E-02  8.61721516E-02 -8.99717842E-08
  1.38613748E-07 -5.92925241E-08  1.13398930E-07 -3.92004621E-01  1.32109724E-06
 -6.17278515E-08  4.47192678E-07 -1.38217526E+00 -2.36379322E-08 -7.34991053E-08
  7.92413726E-08 -2.59398739E-08 -1.24469299E-02  1.67002310E-02 -4.86105993E-08
  1.61839543E-07  4.98761187E-08  2.34772142E-07  2.58375217E-03 -7.46626347E-07
 -1.61707737E-07 -7.46991235E-07 -2.85387080E-02 -6.20640381E-07 -8.39941862E-09
 -1.14834498E-06  2.93635113E-01 -8.22127223E-08  1.93308914E-08  1.97900266E-09
  2.82030721E-08  7.68553770E-02  2.39759582E-02 -1.00469254E-01 -1.50791798E+00
  1.00469478E-01  1.50791976E+00 -3.08793829E-07 -3.62505485E-06  3.01257599E-07
  2.02493323E-06  2.19019659E-02 -1.06781798E-01 -9.52733381E-02  4.32194379E-02
  2.67178360E-07  7.81003857E-02 -3.33615912E-01  3.04423657E-02  2.09408901E-07
  4.20488738E-02 -1.36893973E-02 -2.87769936E-02  1.16470471E-02  1.78569816E-08
  7.88495225E-08 -1.79699671E-02 -7.40014024E-03  1.96428649E-01  1.48093480E-01
 -8.66698545E-08 -4.88708762E-01 -7.85949875E-01 -6.42686339E-01  3.45343064E-07
  1.09545973E+00  6.63008036E-01  1.12824882E+00 -3.41243715E-07  1.77752203E-02
 -1.95693133E-01  8.72292273E-02 -5.20458501E-02 -4.38867777E-08  6.63530333E-09
 -9.04290091E-02 -1.21758703E-01 -9.04288026E-02 -1.21758828E-01  2.09160262E-02
  2.03153022E-01 -2.39598818E-01 -3.65640619E-01 -1.24399040E-03 -7.34731622E-03
 -1.25025036E-01 -1.38325211E-02  1.12359908E-07  8.85142107E-02 -2.00845724E-01
 -4.63578670E-02  3.51164776E-08 -2.76233187E-03 -1.39938370E-02  9.91597478E-03
  3.36882715E-03  6.52792574E-09 -6.49644997E-08 -4.34354183E-02  4.98419816E-02
  1.16038957E-01 -2.04833966E-01 -5.47171533E-08 -9.92943811E-01 -4.43037335E-01
  8.22965763E-01  2.21921549E-07  1.47002341E+00  2.55104352E-01 -7.01322537E-01
 -2.29997033E-07 -1.10204036E-01 -7.52137101E-03  1.11831796E-02 -2.74123841E-02
 -2.73260092E-08 -3.73733220E-08  2.28452361E-04 -5.92833767E-02  2.28301092E-04
 -5.92841459E-02 -7.10994517E-02 -2.98662762E-01  3.17940751E-02 -2.99991307E-01
 -2.49946512E-02  2.03205900E-01 -1.45583428E-01 -2.36540118E-02  2.31484390E-07
 -5.06386538E-01 -3.37345925E-01  1.18269793E-02  4.19974141E-08 -8.91403600E-02
  4.66467964E-02  4.30853883E-02  2.30140104E-02  2.14379594E-08  8.26110667E-08
 -3.93524756E-02 -1.40664327E-02 -1.74105847E-01  6.14074767E-02 -6.59792693E-07
 -1.05696349E+00  7.48470621E-01 -2.80248103E-01  2.66199593E-06  2.28273414E+00
 -1.37866901E+00  8.43455701E-01 -2.79065881E-06 -2.17109096E-01 -1.25564433E-01
  1.33238128E-01 -3.45977874E-02 -9.88231557E-08  2.39176218E-08 -1.14036402E-02
 -3.82851972E-01 -1.14031729E-02 -3.82851929E-01  9.82431155E-02 -3.71783536E-01
 -1.14831486E-01 -6.99925232E-01 -4.51079212E-08  3.94105126E-07 -3.97416102E-07
 -9.64723947E-08  4.01471636E-02 -1.11384917E-06 -9.00258626E-07  7.71617815E-08
  2.76287964E-02 -1.86236350E-07  1.83783669E-07 -9.13305934E-10  6.45724469E-08
 -1.73306253E-03 -1.65707719E-02 -9.63442388E-08 -4.23322507E-08 -3.15087902E-07
  1.15822172E-07  2.95318104E-01 -2.61602333E-06  1.37947740E-06 -5.73523272E-07
 -1.19282275E+00  5.71268517E-06 -2.85626256E-06  2.12127777E-06  1.27109042E+00
 -4.88865520E-07 -3.60685168E-07  3.34159202E-07 -1.19797086E-07  2.87731878E-02
 -2.55423727E-02  6.52499378E-02  1.86220571E-01 -6.52502164E-02 -1.86222773E-01
  3.77044268E-07 -3.80494096E-07 -4.23201068E-07 -1.79659053E-06  7.27990439E-04
 -5.09253782E-02 -6.04382219E-02 -7.33860063E-01 -1.15881170E-06  1.71413014E-01
  1.39085254E-01  1.30321019E+00  1.77868727E-06  9.49970407E-03  5.43038601E-02
 -7.26416627E-02  6.91677199E-02  7.63034534E-08  3.17514083E-07  8.55938124E-03
 -2.50909450E-03  3.61427787E-03 -2.65844730E-02 -1.47099748E-08  2.19911849E-01
 -2.19835275E-02  1.22546232E-01  8.73178513E-08 -6.10697044E-01  8.44160998E-02
 -7.14274002E-01 -5.95133370E-07 -2.69606821E-03  5.63046665E-02 -3.04100311E-02
 -3.35336562E-01 -3.67841236E-07  1.03050798E-07 -2.04301274E-01 -8.68479191E-04
 -2.04300844E-01 -8.68144838E-04  3.98514678E-01  7.40677167E-02 -1.40103543E-01
  5.44600476E-01  4.61824976E-09  2.52355183E-08 -8.77916253E-08  1.07227516E-06
 -7.14309023E-01 -2.36988020E-07 -1.49947609E-07 -2.06642276E-06  1.36416791E+00
 -3.11285921E-08  3.19536536E-07 -2.84640016E-07 -9.18778797E-08  7.74390262E-02
 -8.00718256E-02 -1.42673861E-08 -2.45821776E-08 -5.30089506E-09  6.00295625E-10
  6.67515720E-03 -4.46444975E-07  5.26789570E-08 -7.39979661E-08 -3.16170067E-03
  1.15631559E-06 -2.07592908E-07  1.16044138E-06 -3.63285699E-01 -2.00707973E-08
 -2.21253512E-07  1.47605154E-07  5.08385273E-07 -3.56936335E-01 -1.51098344E-02
  3.69991798E-01  1.18425858E-01 -3.69992067E-01 -1.18426030E-01  3.09672616E-07
 -7.80266108E-08 -1.51015394E-07 -6.64097023E-07  2.59665933E-02 -1.03363032E-01
 -8.50165750E-01  3.87242214E-02  2.61669455E-08  1.98964020E-02  2.03714083E+00
 -1.00546640E-01 -1.44343425E-07 -9.26544837E-02  3.04091668E-02  3.52235289E-02
 -1.08644942E-03 -2.35435612E-08 -1.58180929E-08  1.52003985E-02 -1.55511525E-02
  7.77625431E-02  8.56955153E-03 -1.93890008E-09  3.77656502E-01 -2.04924897E-01